
                                 *****************
                                 * O   R   C   A *
                                 *****************

                                            #,                                       
                                            ###                                      
                                            ####                                     
                                            #####                                    
                                            ######                                   
                                           ########,                                 
                                     ,,################,,,,,                         
                               ,,#################################,,                 
                          ,,##########################################,,             
                       ,#########################################, ''#####,          
                    ,#############################################,,   '####,        
                  ,##################################################,,,,####,       
                ,###########''''           ''''###############################       
              ,#####''   ,,,,##########,,,,          '''####'''          '####       
            ,##' ,,,,###########################,,,                        '##       
           ' ,,###''''                  '''############,,,                           
         ,,##''                                '''############,,,,        ,,,,,,###''
      ,#''                                            '''#######################'''  
     '                                                          ''''####''''         
             ,#######,   #######,   ,#######,      ##                                
            ,#'     '#,  ##    ##  ,#'     '#,    #''#        ,####,   ,####,        
            ##       ##  ##   ,#'  ##            #'  '#       #'       #'  '#        
            ##       ##  #######   ##           ,######,      #####,   #    #        
            '#,     ,#'  ##    ##  '#,     ,#' ,#      #,     #,   #   #,  ,#        
             '#######'   ##     ##  '#######'  #'      '#     '####' # '####'        



                #########################################################
                #                        -***-                          #
                #          Department of theory and spectroscopy        #
                #                                                       #
                #                      Frank Neese                      #
                #                                                       #
                #     Directorship, Architecture, Infrastructure        #
                #                    SHARK, DRIVERS                     #
                #        Core code/Algorithms in most modules           #
                #                                                       #
                #        Max Planck Institute fuer Kohlenforschung      #
                #                Kaiser Wilhelm Platz 1                 #
                #                 D-45470 Muelheim/Ruhr                 #
                #                      Germany                          #
                #                                                       #
                #                  All rights reserved                  #
                #                        -***-                          #
                #########################################################


                         Program Version 6.0.1  -  RELEASE   -


 With contributions from (in alphabetic order):
[Max-Planck-Institut fuer Kohlenforschung]                               
  Daniel Aravena         : Magnetic Suceptibility                        
  Michael Atanasov       : Ab Initio Ligand Field Theory (pilot matlab implementation)
  Alexander A. Auer      : GIAO ZORA, VPT2 properties, NMR spectrum      
  Ute Becker             : All parallelization in ORCA, NUMFREQ, NUMCALC 
  Giovanni Bistoni       : ED, misc. LED, open-shell LED, HFLD           
  Martin Brehm           : Molecular dynamics                            
  Dmytro Bykov           : pre 5.0 version of the SCF Hessian            
  Marcos Casanova-Páez   : Triplet and SCS-CIS(D). UHF-(DLPNO)-IP/EA/STEOM-CCSD. UHF-CVS-IP/STEOM-CCSD   
  Vijay G. Chilkuri      : MRCI spin determinant printing, contributions to CSF-ICE 
  Pauline Colinet        : FMM embedding                                 
  Dipayan Datta          : RHF DLPNO-CCSD density                        
  Achintya Kumar Dutta   : EOM-CC, STEOM-CC                              
  Nicolas Foglia         : Exact transition moments, OPA infrastructure, MCD improvements    
  Dmitry Ganyushin       : Spin-Orbit,Spin-Spin,Magnetic field MRCI      
  Miquel Garcia-Rates    : C-PCM and meta-GGA Hessian, CCSD/C-PCM, Gaussian charge scheme 
  Tiago L. C. Gouveia    : GS-ROHF, GS-ROCIS                             
  Yang Guo               : DLPNO-NEVPT2, F12-NEVPT2, CIM, IAO-localization        
  Andreas Hansen         : Spin unrestricted coupled pair/coupled cluster methods 
  Ingolf Harden          : AUTO-CI MPn and infrastructure                
  Benjamin Helmich-Paris : MC-RPA, TRAH-(SCF,CASSCF), AVAS, COSX integrals, SCF dyn. polar. 
  Lee Huntington         : MR-EOM, pCC                                   
  Robert Izsak           : Overlap fitted RIJCOSX, COSX-SCS-MP3, EOM     
  Riya Kayal             : Wick's Theorem for AUTO-CI, AUTO-CI UHF-CCSDT 
  Emily Kempfer          : AUTO-CI, RHF CISDT and CCSDT                  
  Christian Kollmar      : KDIIS, OOCD, Brueckner-CCSD(T), CCSD density, CASPT2, CASPT2-K, improved NEVPT2 
  Axel Koslowski         : Symmetry handling                             
  Simone Kossmann        : meta-GGA functionals, TD-DFT gradient, OOMP2, (MP2 Hessian; deprecated post 5.0) 
  Lucas Lang             : DCDCAS                                        
  Marvin Lechner         : AUTO-CI (C++ implementation), FIC-MRCC        
  Spencer Leger          : CASSCF response                               
  Dagmar Lenk            : GEPOL surface, SMD, ORCA-2-JSON               
  Dimitrios Liakos       : Extrapolation schemes; Compound Job, initial MDCI parallelization 
  Dimitrios Manganas     : Further ROCIS development; embedding schemes. LFT, Crystal Embedding 
  Dimitrios Pantazis     : SARC Basis sets                               
  Anastasios Papadopoulos: AUTO-CI, single reference methods and gradients 
  Taras Petrenko         : pre 6.0 DFT Hessian and TD-DFT gradient, (ASA, deprecated), ECA, 1-Electron XAS/XES, NRVS 
  Peter Pinski           : DLPNO-MP2, DLPNO-MP2 Gradient                 
  Christoph Reimann      : Effective Core Potentials                     
  Marius Retegan         : Local ZFS, SOC                                
  Christoph Riplinger    : Optimizer, TS searches, QM/MM, DLPNO-CCSD(T), (RO)-DLPNO pert. Triples 
  Michael Roemelt        : Original ROCIS implementation                 
  Masaaki Saitow         : Open-shell DLPNO-CCSD energy and density      
  Barbara Sandhoefer     : DKH picture change effects                    
  Kantharuban Sivalingam : CASSCF convergence/infrastructure, NEVPT2 and variants, FIC-MRCI 
  Bernardo de Souza      : ESD, SOC TD-DFT                               
  Georgi L. Stoychev     : AutoAux, RI-MP2 NMR, DLPNO-MP2 response, X2C  
  Van Anh Tran           : RI-MP2 g-tensors                              
  Willem Van den Heuvel  : Paramagnetic NMR                              
  Zikuan Wang            : NOTCH, Electric field optimization            
  Frank Wennmohs         : Technical directorship and infrastructure     
  Hang Xu                : AUTO-CI-Response properties                   
                                                                         
[FACCTs GmbH]                                                            
  Markus Bursch, Miquel Garcia-Rates, Christoph Riplinger, Bernardo de Souza, Georgi L. Stoychev 
                                                                 
  APM, Basis sets (HGBS, AHGBS, def-TZVP (Ac-Lr), def2-XVPD (La-Lu)), CI-OPT, improved COSX, DLPNO-Multilevel,           
  DOCKER, DRACO, updates on ESD, GOAT, IRC, LR-CPCM, MBIS, meta-GGA TD-DFT gradient, ML-optimized integration grids, 
  MM, NACMEs, nearIR, NEB, NEB-TS, NL-DFT gradient (VV10), 2- and 3-layer-ONIOM, interface openCOSMO-RS, QMMM,   
  Crystal-QMMM, SF, symmetry and pop. for TD-DFT, r2SCAN hybrids, SOLVATOR                                   
                                                                         
[Other institutions]                                                     
  V. Asgeirsson          : NEB                                           
  Christoph Bannwarth    : sTDA-DFT, sTD-DFT, PBEh-3c, B97-3c, D3        
  Sebastian Ehlert       : rSCAN, r2SCAN, r2SCAN-3c, D4, dhf basis sets  
  Marvin Friede          : D4 for Fr, Ra, Ac-Lr                          
  Lars Goerigk           : TD-DFT with DH, B97 family of functionals     
  Stefan Grimme          : VdW corrections, initial TS optimization, DFT functionals, gCP, sTDA/sTD-DF 
  Waldemar Hujo          : DFT-NL                                        
  H. Jonsson             : NEB                                           
  Holger Kruse           : gCP                                           
  Marcel Mueller         : wB97X-3c, vDZP basis set                      
  Hagen Neugebauer       : wr2SCAN                                       
  Tobias Risthaus        : range-separated hybrid DFT                    
  Lukas Wittmann         : regularized MP2, r2SCAN double-hybrids, wr2SCAN        
                                                                         
We gratefully acknowledge several colleagues who have allowed us to      
interface, adapt or use parts of their codes:                            
  Ed Valeev, F. Pavosevic, A. Kumar             : LibInt (2-el integral package), F12 methods 
  Garnet Chan, S. Sharma, J. Yang, R. Olivares  : DMRG                   
  Ulf Ekstrom                                   : XCFun DFT Library      
  Mihaly Kallay                                 : mrcc  (arbitrary order and MRCC methods)
  Frank Weinhold                                : gennbo (NPA and NBO analysis)           
  Simon Mueller                                 : openCOSMO-RS                            
  Christopher J. Cramer and Donald G. Truhlar   : smd solvation model                     
  S Lehtola, MJT Oliveira, MAL Marques          : LibXC Library                           
  Liviu Ungur et al                             : ANISO software                          


 Your calculation uses the libint2 library for the computation of 2-el integrals
 For citations please refer to: http://libint.valeyev.net

 Your ORCA version has been built with support for libXC version: 6.2.2
 For citations please refer to: https://libxc.gitlab.io

 This ORCA versions uses:
   CBLAS   interface :  Fast vector & matrix operations
   LAPACKE interface :  Fast linear algebra routines
   SCALAPACK package :  Parallel linear algebra routines
   Shared memory     :  Shared parallel matrices
   BLAS/LAPACK       :  OpenBLAS 0.3.27  USE64BITINT DYNAMIC_ARCH NO_AFFINITY Zen SINGLE_THREADED
        Core in use  :  Zen
   Copyright (c) 2011-2014, The OpenBLAS Project


NOTE: MaxCore=5120 MB was set to SCF,MP2,MDCI,CIPSI,MRCI and CIS
      => If you want to overwrite this, your respective input block should be placed after the MaxCore statement
Your calculation utilizes the atom-pairwise dispersion correction
based on EEQ partial charges (D4)


================================================================================

----- Orbital basis set information -----
Your calculation utilizes the basis: def2-TZVPP
   F. Weigend and R. Ahlrichs, Phys. Chem. Chem. Phys. 7, 3297 (2005).

----- AuxJ basis set information -----
Your calculation utilizes the auxiliary basis: def2/J
   F. Weigend, Phys. Chem. Chem. Phys. 8, 1057 (2006).

----- AuxC basis set information -----
Your calculation utilizes the auxiliary basis: def2-TZVPP/C
  H-La, Hf-Rn : A. Hellweg, C. Hattig, S. Hofener and W. Klopper, Theor. Chem. Acc. 117, 587 (2007).
        Ce-Lu : J. Chmela and M. E. Harding, Mol. Phys. (2018).

================================================================================
                                        WARNINGS
                       Please study these warnings very carefully!
================================================================================


WARNING: No MP2 level density has been requested!
         To calculate MP2 level properties use
         %mp2 Density relaxed end
         or
         %mp2 Density unrelaxed end
         Otherwise for double-hybrid DFT only the energy is correct!

WARNING: The frozen-core approximation is turned on by default for 
         the MP2 part of double-hybrid DFT.

================================================================================
                                       INPUT FILE
================================================================================
NAME = real-s-ml-dla-ts1-sp.inp
|  1> ! PWPB95 D4 def2-TZVPP def2/J def2-TZVPP/C tightSCF noautostart miniprint nopop
|  2> %pal nprocs 48 end
|  3> %maxcore 5120
|  4> * xyz 0 1
|  5> C      5.336469    -4.989211     0.006523
|  6> C      4.504100    -4.642907    -1.027083
|  7> C      3.691260    -3.476986    -0.951212
|  8> C      3.737983    -2.645809     0.222626
|  9> C      4.617187    -3.040361     1.273281
| 10> C      5.386348    -4.173848     1.167599
| 11> H      2.876692    -3.659924    -2.934853
| 12> H      5.954882    -5.879562    -0.057170
| 13> H      4.451899    -5.251734    -1.926744
| 14> C      2.868508    -3.079505    -2.013770
| 15> C      2.933384    -1.478675     0.304853
| 16> H      4.663353    -2.431946     2.168928
| 17> H      6.043023    -4.453599     1.987015
| 18> C      2.037054    -1.154320    -0.723447
| 19> C      2.061924    -1.947847    -1.931587
| 20> C     -3.176897    -1.964587     4.927147
| 21> C     -2.833840    -3.099951     4.229404
| 22> C     -2.745216    -3.086298     2.811447
| 23> C     -3.066513    -1.885270     2.099787
| 24> C     -3.376690    -0.721902     2.855516
| 25> C     -3.427374    -0.758564     4.229779
| 26> H     -2.047899    -5.126118     2.616675
| 27> H     -3.232797    -1.985271     6.011834
| 28> H     -2.601399    -4.023109     4.754227
| 29> C     -2.311340    -4.218647     2.079681
| 30> C     -3.056502    -1.878227     0.666628
| 31> H     -3.650759     0.148496     4.784205
| 32> C     -2.611088    -3.009174    -0.016979
| 33> C     -2.217595    -4.164701     0.712158
| 34> H     -1.882087    -5.034496     0.155504
| 35> C      3.126881    -0.540061     1.450227
| 36> C      2.202212    -0.496135     2.536601
| 37> C      4.280964     0.237988     1.493354
| 38> C      0.984041    -1.225118     2.517360
| 39> C      2.495398     0.313336     3.683114
| 40> C      4.578022     0.999658     2.654683
| 41> C      0.100165    -1.143729     3.567029
| 42> C      1.560949     0.374163     4.749997
| 43> C      3.713906     1.036066     3.720569
| 44> H      5.495293     1.581299     2.671124
| 45> C      0.385058    -0.335748     4.692589
| 46> H     -0.821447    -1.703779     3.537199
| 47> H      1.794063     0.997903     5.609712
| 48> H      3.944338     1.634299     4.598712
| 49> H     -0.333214    -0.283882     5.505805
| 50> C     -3.561821    -0.693259    -0.084365
| 51> C     -4.931448    -0.307768     0.022087
| 52> C     -2.698974    -0.022541    -0.970013
| 53> C     -5.860017    -0.973260     0.877137
| 54> C     -5.440286     0.776447    -0.775544
| 55> C     -3.272258     0.961373    -1.866899
| 56> C     -7.163119    -0.547954     0.986381
| 57> H     -5.526812    -1.825912     1.454167
| 58> C     -6.791438     1.197514    -0.629958
| 59> C     -4.596251     1.346937    -1.740699
| 60> C     -7.638753     0.560989     0.242096
| 61> H     -7.840948    -1.074460     1.652704
| 62> H     -7.138691     2.031618    -1.234916
| 63> H     -4.998103     2.098880    -2.416463
| 64> H     -8.668752     0.887283     0.350178
| 65> C      1.364848    -1.539851    -3.120421
| 66> N      0.595425    -0.508831    -3.226684
| 67> N     -1.268025     1.230031    -3.159260
| 68> C     -0.018473    -0.218077    -4.527755
| 69> C     -0.616631     1.197895    -4.455361
| 70> O      1.255977    -0.115128    -0.601276
| 71> O     -1.429387    -0.342866    -1.024316
| 72> C     -2.540321     1.368147    -3.039390
| 73> Al    -0.007894     0.655720    -1.667204
| 74> H      1.542136    -2.156472    -4.008347
| 75> H     -3.127962     1.717253    -3.896638
| 76> H     -1.314591     1.374778    -5.282977
| 77> H     -0.826364    -0.940085    -4.700965
| 78> H      0.712307    -0.303097    -5.340695
| 79> H      0.750978    -1.838402     1.654086
| 80> H     -3.542633     0.209143     2.331411
| 81> H      0.180174     1.945093    -4.473758
| 82> C     -0.811225     1.993163     0.807132
| 83> C     -2.153470     2.717073     0.900411
| 84> O     -2.653074     3.427211     0.055857
| 85> O     -2.762937     2.439672     2.076140
| 86> C     -4.071895     3.011970     2.236073
| 87> H     -4.023055     4.101617     2.171822
| 88> H     -4.747946     2.633716     1.464921
| 89> H     -4.407029     2.698851     3.225254
| 90> O     -0.307707     2.119652    -0.508028
| 91> C      2.616041     4.218996     0.066595
| 92> C      1.457610     5.132141     0.457262
| 93> O      1.450683     5.836918     1.436025
| 94> O      0.411885     5.113381    -0.396936
| 95> C      0.574243     4.368932    -1.622835
| 96> C      1.117599     2.973038    -1.340338
| 97> O      1.165573     2.112910    -2.281921
| 98> O      2.140496     2.955765    -0.452886
| 99> H      3.166240     4.720749    -0.744822
|100> H      1.364526     4.858018    -2.215400
|101> C      3.556167     3.922558     1.213949
|102> H      3.029628     3.414314     2.022843
|103> H      4.364017     3.276822     0.863363
|104> C     -0.736547     4.434948    -2.373326
|105> H     -1.526926     3.991296    -1.768491
|106> H     -0.975147     5.482445    -2.579711
|107> H      3.970510     4.857997     1.596760
|108> H     -0.642138     3.901163    -3.320823
|109> H     -1.018998     0.930075     0.974405
|110> C      0.155604     2.429604     1.908258
|111> H      1.114621     1.940218     1.739681
|112> H      0.290795     3.512739     1.939728
|113> H     -0.231437     2.105097     2.876683
|114> C     -2.526616    -3.074637    -1.499329
|115> C     -3.616551    -2.750629    -2.320538
|116> C     -1.334591    -3.498821    -2.103632
|117> C     -3.510375    -2.831059    -3.707825
|118> H     -4.551976    -2.441578    -1.867313
|119> C     -1.232361    -3.593857    -3.490332
|120> H     -0.475484    -3.727097    -1.480121
|121> C     -2.318128    -3.254124    -4.300147
|122> H     -4.367126    -2.579134    -4.327028
|123> H     -0.303201    -3.935914    -3.938585
|124> H     -2.242131    -3.334591    -5.381485
|125> C      5.208392     0.308933     0.334852
|126> C      4.734452     0.721713    -0.920982
|127> C      6.565518    -0.006014     0.478119
|128> C      5.602464     0.800681    -2.007917
|129> H      3.691242     0.996707    -1.030833
|130> C      7.431825     0.070273    -0.612593
|131> H      6.934469    -0.334919     1.445832
|132> C      6.951828     0.471476    -1.859714
|133> H      5.222257     1.124461    -2.973353
|134> H      8.479721    -0.189697    -0.489043
|135> H      7.625889     0.530087    -2.710131
|136> *
|137> 
|138>                          ****END OF INPUT****
================================================================================

                       ****************************
                       * Single Point Calculation *
                       ****************************

---------------------------------
CARTESIAN COORDINATES (ANGSTROEM)
---------------------------------
  C      5.336469   -4.989211    0.006523
  C      4.504100   -4.642907   -1.027083
  C      3.691260   -3.476986   -0.951212
  C      3.737983   -2.645809    0.222626
  C      4.617187   -3.040361    1.273281
  C      5.386348   -4.173848    1.167599
  H      2.876692   -3.659924   -2.934853
  H      5.954882   -5.879562   -0.057170
  H      4.451899   -5.251734   -1.926744
  C      2.868508   -3.079505   -2.013770
  C      2.933384   -1.478675    0.304853
  H      4.663353   -2.431946    2.168928
  H      6.043023   -4.453599    1.987015
  C      2.037054   -1.154320   -0.723447
  C      2.061924   -1.947847   -1.931587
  C     -3.176897   -1.964587    4.927147
  C     -2.833840   -3.099951    4.229404
  C     -2.745216   -3.086298    2.811447
  C     -3.066513   -1.885270    2.099787
  C     -3.376690   -0.721902    2.855516
  C     -3.427374   -0.758564    4.229779
  H     -2.047899   -5.126118    2.616675
  H     -3.232797   -1.985271    6.011834
  H     -2.601399   -4.023109    4.754227
  C     -2.311340   -4.218647    2.079681
  C     -3.056502   -1.878227    0.666628
  H     -3.650759    0.148496    4.784205
  C     -2.611088   -3.009174   -0.016979
  C     -2.217595   -4.164701    0.712158
  H     -1.882087   -5.034496    0.155504
  C      3.126881   -0.540061    1.450227
  C      2.202212   -0.496135    2.536601
  C      4.280964    0.237988    1.493354
  C      0.984041   -1.225118    2.517360
  C      2.495398    0.313336    3.683114
  C      4.578022    0.999658    2.654683
  C      0.100165   -1.143729    3.567029
  C      1.560949    0.374163    4.749997
  C      3.713906    1.036066    3.720569
  H      5.495293    1.581299    2.671124
  C      0.385058   -0.335748    4.692589
  H     -0.821447   -1.703779    3.537199
  H      1.794063    0.997903    5.609712
  H      3.944338    1.634299    4.598712
  H     -0.333214   -0.283882    5.505805
  C     -3.561821   -0.693259   -0.084365
  C     -4.931448   -0.307768    0.022087
  C     -2.698974   -0.022541   -0.970013
  C     -5.860017   -0.973260    0.877137
  C     -5.440286    0.776447   -0.775544
  C     -3.272258    0.961373   -1.866899
  C     -7.163119   -0.547954    0.986381
  H     -5.526812   -1.825912    1.454167
  C     -6.791438    1.197514   -0.629958
  C     -4.596251    1.346937   -1.740699
  C     -7.638753    0.560989    0.242096
  H     -7.840948   -1.074460    1.652704
  H     -7.138691    2.031618   -1.234916
  H     -4.998103    2.098880   -2.416463
  H     -8.668752    0.887283    0.350178
  C      1.364848   -1.539851   -3.120421
  N      0.595425   -0.508831   -3.226684
  N     -1.268025    1.230031   -3.159260
  C     -0.018473   -0.218077   -4.527755
  C     -0.616631    1.197895   -4.455361
  O      1.255977   -0.115128   -0.601276
  O     -1.429387   -0.342866   -1.024316
  C     -2.540321    1.368147   -3.039390
  Al    -0.007894    0.655720   -1.667204
  H      1.542136   -2.156472   -4.008347
  H     -3.127962    1.717253   -3.896638
  H     -1.314591    1.374778   -5.282977
  H     -0.826364   -0.940085   -4.700965
  H      0.712307   -0.303097   -5.340695
  H      0.750978   -1.838402    1.654086
  H     -3.542633    0.209143    2.331411
  H      0.180174    1.945093   -4.473758
  C     -0.811225    1.993163    0.807132
  C     -2.153470    2.717073    0.900411
  O     -2.653074    3.427211    0.055857
  O     -2.762937    2.439672    2.076140
  C     -4.071895    3.011970    2.236073
  H     -4.023055    4.101617    2.171822
  H     -4.747946    2.633716    1.464921
  H     -4.407029    2.698851    3.225254
  O     -0.307707    2.119652   -0.508028
  C      2.616041    4.218996    0.066595
  C      1.457610    5.132141    0.457262
  O      1.450683    5.836918    1.436025
  O      0.411885    5.113381   -0.396936
  C      0.574243    4.368932   -1.622835
  C      1.117599    2.973038   -1.340338
  O      1.165573    2.112910   -2.281921
  O      2.140496    2.955765   -0.452886
  H      3.166240    4.720749   -0.744822
  H      1.364526    4.858018   -2.215400
  C      3.556167    3.922558    1.213949
  H      3.029628    3.414314    2.022843
  H      4.364017    3.276822    0.863363
  C     -0.736547    4.434948   -2.373326
  H     -1.526926    3.991296   -1.768491
  H     -0.975147    5.482445   -2.579711
  H      3.970510    4.857997    1.596760
  H     -0.642138    3.901163   -3.320823
  H     -1.018998    0.930075    0.974405
  C      0.155604    2.429604    1.908258
  H      1.114621    1.940218    1.739681
  H      0.290795    3.512739    1.939728
  H     -0.231437    2.105097    2.876683
  C     -2.526616   -3.074637   -1.499329
  C     -3.616551   -2.750629   -2.320538
  C     -1.334591   -3.498821   -2.103632
  C     -3.510375   -2.831059   -3.707825
  H     -4.551976   -2.441578   -1.867313
  C     -1.232361   -3.593857   -3.490332
  H     -0.475484   -3.727097   -1.480121
  C     -2.318128   -3.254124   -4.300147
  H     -4.367126   -2.579134   -4.327028
  H     -0.303201   -3.935914   -3.938585
  H     -2.242131   -3.334591   -5.381485
  C      5.208392    0.308933    0.334852
  C      4.734452    0.721713   -0.920982
  C      6.565518   -0.006014    0.478119
  C      5.602464    0.800681   -2.007917
  H      3.691242    0.996707   -1.030833
  C      7.431825    0.070273   -0.612593
  H      6.934469   -0.334919    1.445832
  C      6.951828    0.471476   -1.859714
  H      5.222257    1.124461   -2.973353
  H      8.479721   -0.189697   -0.489043
  H      7.625889    0.530087   -2.710131

----------------------------
CARTESIAN COORDINATES (A.U.)
----------------------------
  NO LB      ZA    FRAG     MASS         X           Y           Z
   0 C     6.0000    0    12.011   10.084465   -9.428242    0.012327
   1 C     6.0000    0    12.011    8.511515   -8.773823   -1.940906
   2 C     6.0000    0    12.011    6.975470   -6.570551   -1.797530
   3 C     6.0000    0    12.011    7.063764   -4.999854    0.420702
   4 C     6.0000    0    12.011    8.725219   -5.745450    2.406152
   5 C     6.0000    0    12.011   10.178723   -7.887430    2.206442
   6 H     1.0000    0     1.008    5.436160   -6.916254   -5.546068
   7 H     1.0000    0     1.008   11.253096  -11.110762   -0.108036
   8 H     1.0000    0     1.008    8.412870   -9.924339   -3.641018
   9 C     6.0000    0    12.011    5.420695   -5.819421   -3.805474
  10 C     6.0000    0    12.011    5.543292   -2.794291    0.576089
  11 H     1.0000    0     1.008    8.812460   -4.595712    4.098680
  12 H     1.0000    0     1.008   11.419658   -8.416082    3.754914
  13 C     6.0000    0    12.011    3.849474   -2.181349   -1.367117
  14 C     6.0000    0    12.011    3.896472   -3.680897   -3.650170
  15 C     6.0000    0    12.011   -6.003465   -3.712531    9.310958
  16 C     6.0000    0    12.011   -5.355182   -5.858058    7.992415
  17 C     6.0000    0    12.011   -5.187706   -5.832258    5.312865
  18 C     6.0000    0    12.011   -5.794870   -3.562644    3.968022
  19 C     6.0000    0    12.011   -6.381019   -1.364197    5.396143
  20 C     6.0000    0    12.011   -6.476798   -1.433478    7.993124
  21 H     1.0000    0     1.008   -3.869968   -9.686959    4.944799
  22 H     1.0000    0     1.008   -6.109101   -3.751618   11.360720
  23 H     1.0000    0     1.008   -4.915932   -7.602574    8.984187
  24 C     6.0000    0    12.011   -4.367800   -7.972087    3.930028
  25 C     6.0000    0    12.011   -5.775952   -3.549335    1.259744
  26 H     1.0000    0     1.008   -6.898935    0.280617    9.040837
  27 C     6.0000    0    12.011   -4.934241   -5.686515   -0.032086
  28 C     6.0000    0    12.011   -4.190647   -7.870144    1.345784
  29 H     1.0000    0     1.008   -3.556629   -9.513819    0.293860
  30 C     6.0000    0    12.011    5.908949   -1.020567    2.740532
  31 C     6.0000    0    12.011    4.161578   -0.937559    4.793481
  32 C     6.0000    0    12.011    8.089850    0.449732    2.822030
  33 C     6.0000    0    12.011    1.859568   -2.315138    4.757121
  34 C     6.0000    0    12.011    4.715619    0.592119    6.960077
  35 C     6.0000    0    12.011    8.651208    1.889080    5.016624
  36 C     6.0000    0    12.011    0.189284   -2.161335    6.740708
  37 C     6.0000    0    12.011    2.949766    0.707066    8.976193
  38 C     6.0000    0    12.011    7.018265    1.957881    7.030856
  39 H     1.0000    0     1.008   10.384599    2.988222    5.047693
  40 C     6.0000    0    12.011    0.727654   -0.634472    8.867708
  41 H     1.0000    0     1.008   -1.552310   -3.219676    6.684337
  42 H     1.0000    0     1.008    3.390288    1.885763   10.600819
  43 H     1.0000    0     1.008    7.453719    3.088378    8.690306
  44 H     1.0000    0     1.008   -0.629683   -0.536459   10.404464
  45 C     6.0000    0    12.011   -6.730866   -1.310070   -0.159427
  46 C     6.0000    0    12.011   -9.319086   -0.581597    0.041738
  47 C     6.0000    0    12.011   -5.100322   -0.042596   -1.833059
  48 C     6.0000    0    12.011  -11.073827   -1.839195    1.657549
  49 C     6.0000    0    12.011  -10.280651    1.467272   -1.465566
  50 C     6.0000    0    12.011   -6.183671    1.816732   -3.527928
  51 C     6.0000    0    12.011  -13.536333   -1.035483    1.863990
  52 H     1.0000    0     1.008  -10.444161   -3.450474    2.747977
  53 C     6.0000    0    12.011  -12.833958    2.262974   -1.190448
  54 C     6.0000    0    12.011   -8.685656    2.545342   -3.289444
  55 C     6.0000    0    12.011  -14.435151    1.060116    0.457495
  56 H     1.0000    0     1.008  -14.817244   -2.030435    3.123158
  57 H     1.0000    0     1.008  -13.490171    3.839202   -2.333653
  58 H     1.0000    0     1.008   -9.445046    3.966308   -4.566453
  59 H     1.0000    0     1.008  -16.381567    1.676722    0.661741
  60 C     6.0000    0    12.011    2.579189   -2.909897   -5.896741
  61 N     7.0000    0    14.007    1.125190   -0.961551   -6.097549
  62 N     7.0000    0    14.007   -2.396220    2.324422   -5.970136
  63 C     6.0000    0    12.011   -0.034909   -0.412106   -8.556217
  64 C     6.0000    0    12.011   -1.165264    2.263693   -8.419412
  65 O     8.0000    0    15.999    2.373453   -0.217560   -1.136247
  66 O     8.0000    0    15.999   -2.701150   -0.647923   -1.935677
  67 C     6.0000    0    12.011   -4.800511    2.585423   -5.743615
  68 Al   13.0000    0    26.982   -0.014917    1.239131   -3.150559
  69 H     1.0000    0     1.008    2.914215   -4.075141   -7.574678
  70 H     1.0000    0     1.008   -5.910992    3.245138   -7.363579
  71 H     1.0000    0     1.008   -2.484217    2.597954   -9.983380
  72 H     1.0000    0     1.008   -1.561602   -1.776503   -8.883536
  73 H     1.0000    0     1.008    1.346065   -0.572770  -10.092451
  74 H     1.0000    0     1.008    1.419143   -3.474076    3.125770
  75 H     1.0000    0     1.008   -6.694606    0.395223    4.405728
  76 H     1.0000    0     1.008    0.340480    3.675693   -8.454177
  77 C     6.0000    0    12.011   -1.532993    3.766532    1.525258
  78 C     6.0000    0    12.011   -4.069469    5.134524    1.701530
  79 O     8.0000    0    15.999   -5.013583    6.476490    0.105554
  80 O     8.0000    0    15.999   -5.221194    4.610312    3.923336
  81 C     6.0000    0    12.011   -7.694766    5.691798    4.225566
  82 H     1.0000    0     1.008   -7.602472    7.750933    4.104149
  83 H     1.0000    0     1.008   -8.972318    4.977002    2.768299
  84 H     1.0000    0     1.008   -8.328078    5.100089    6.094847
  85 O     8.0000    0    15.999   -0.581482    4.005562   -0.960034
  86 C     6.0000    0    12.011    4.943601    7.972747    0.125846
  87 C     6.0000    0    12.011    2.754484    9.698341    0.864100
  88 O     8.0000    0    15.999    2.741394   11.030176    2.713694
  89 O     8.0000    0    15.999    0.778350    9.662890   -0.750100
  90 C     6.0000    0    12.011    1.085162    8.256085   -3.066714
  91 C     6.0000    0    12.011    2.111956    5.618228   -2.532872
  92 O     8.0000    0    15.999    2.202614    3.992821   -4.312206
  93 O     8.0000    0    15.999    4.044951    5.585586   -0.855831
  94 H     1.0000    0     1.008    5.983326    8.920923   -1.407510
  95 H     1.0000    0     1.008    2.578580    9.180324   -4.186499
  96 C     6.0000    0    12.011    6.720182    7.412560    2.294031
  97 H     1.0000    0     1.008    5.725167    6.452118    3.822619
  98 H     1.0000    0     1.008    8.246797    6.192296    1.631520
  99 C     6.0000    0    12.011   -1.391872    8.380837   -4.484936
 100 H     1.0000    0     1.008   -2.885472    7.542456   -3.341964
 101 H     1.0000    0     1.008   -1.842761   10.360320   -4.874947
 102 H     1.0000    0     1.008    7.503177    9.180284    3.017439
 103 H     1.0000    0     1.008   -1.213465    7.372130   -6.275446
 104 H     1.0000    0     1.008   -1.925627    1.757587    1.841359
 105 C     6.0000    0    12.011    0.294049    4.591286    3.606085
 106 H     1.0000    0     1.008    2.106328    3.666481    3.287521
 107 H     1.0000    0     1.008    0.549523    6.638115    3.665555
 108 H     1.0000    0     1.008   -0.437353    3.978057    5.436143
 109 C     6.0000    0    12.011   -4.774612   -5.810222   -2.833321
 110 C     6.0000    0    12.011   -6.834291   -5.197936   -4.385181
 111 C     6.0000    0    12.011   -2.522011   -6.611813   -3.975288
 112 C     6.0000    0    12.011   -6.633647   -5.349926   -7.006774
 113 H     1.0000    0     1.008   -8.601988   -4.613914   -3.528710
 114 C     6.0000    0    12.011   -2.328825   -6.791405   -6.595772
 115 H     1.0000    0     1.008   -0.898535   -7.043193   -2.797023
 116 C     6.0000    0    12.011   -4.380627   -6.149403   -8.126100
 117 H     1.0000    0     1.008   -8.252672   -4.873857   -8.176898
 118 H     1.0000    0     1.008   -0.572967   -7.437800   -7.442847
 119 H     1.0000    0     1.008   -4.237014   -6.301464  -10.169533
 120 C     6.0000    0    12.011    9.842434    0.583799    0.632779
 121 C     6.0000    0    12.011    8.946818    1.363840   -1.740404
 122 C     6.0000    0    12.011   12.407031   -0.011365    0.903514
 123 C     6.0000    0    12.011   10.587123    1.513068   -3.794413
 124 H     1.0000    0     1.008    6.975436    1.883503   -1.947992
 125 C     6.0000    0    12.011   14.044114    0.132797   -1.157633
 126 H     1.0000    0     1.008   13.104247   -0.632905    2.732227
 127 C     6.0000    0    12.011   13.137051    0.890961   -3.514350
 128 H     1.0000    0     1.008    9.868636    2.124923   -5.618823
 129 H     1.0000    0     1.008   16.024350   -0.358475   -0.924157
 130 H     1.0000    0     1.008   14.410842    1.001719   -5.121405



           ************************************************************
           *        Program running with 48 parallel MPI-processes    *
           *              working on a common directory               *
           ************************************************************
------------------------------------------------------------------------------
                   ___                                                        
                  /   \      - P O W E R E D   B Y -                         
                 /     \                                                     
                 |  |  |   _    _      __       _____    __    __             
                 |  |  |  | |  | |    /  \     |  _  \  |  |  /  |          
                  \  \/   | |  | |   /    \    | | | |  |  | /  /          
                 / \  \   | |__| |  /  /\  \   | |_| |  |  |/  /          
                |  |  |   |  __  | /  /__\  \  |    /   |      \           
                |  |  |   | |  | | |   __   |  |    \   |  |\   \          
                \     /   | |  | | |  |  |  |  | |\  \  |  | \   \       
                 \___/    |_|  |_| |__|  |__|  |_| \__\ |__|  \__/        
                                                                              
                      - O R C A' S   B I G   F R I E N D -                    
                                      &                                       
                       - I N T E G R A L  F E E D E R -                       
                                                                              
 v1 FN, 2020, v2 2021, v3 2022-2024                                           
------------------------------------------------------------------------------


----------------------
SHARK INTEGRAL PACKAGE
----------------------

Number of atoms                             ...    131
Number of basis functions                   ...   3171
Number of shells                            ...   1179
Maximum angular momentum                    ...      3
Integral batch strategy                     ... SHARK/LIBINT Hybrid
RI-J (if used) integral strategy            ... SPLIT-RIJ (Revised 2003 algorithm where possible)
Printlevel                                  ...      1
Contraction scheme used                     ... SEGMENTED contraction
Prescreening option                         ... SCHWARTZ
   Thresh                                   ... 2.500e-11
   Tcut                                     ... 2.500e-12
   Tpresel                                  ... 2.500e-12 
Coulomb Range Separation                    ... NOT USED
Exchange Range Separation                   ... NOT USED
Multipole approximations                    ... NOT USED
Finite Nucleus Model                        ... NOT USED
CABS basis                                  ... NOT available
Auxiliary Coulomb fitting basis             ... AVAILABLE
   # of basis functions in Aux-J            ...   4407
   # of shells in Aux-J                     ...   1437
   Maximum angular momentum in Aux-J        ...      4
Auxiliary J/K fitting basis                 ... NOT available
Auxiliary Correlation fitting basis         ... AVAILABLE
   # of basis functions in Aux-C            ...   7565
   # of shells in Aux-C                     ...   2257
   Maximum angular momentum in Aux-C        ...      4
Auxiliary 'external' fitting basis          ... NOT available

Checking pre-screening integrals            ... done (  0.0 sec) Dimension = 1179
Check shell pair data                       ... done (  0.0 sec)
Shell pair information
Shell pair cut-off parameter TPreSel        ...   2.5e-12
Total number of shell pairs                 ...    695610
Shell pairs after pre-screening             ...    323891
Total number of primitive shell pairs       ...   1984924
Primitive shell pairs kept                  ...    562132
          la=0 lb=0:  71913 shell pairs
          la=1 lb=0:  96424 shell pairs
          la=1 lb=1:  32472 shell pairs
          la=2 lb=0:  47498 shell pairs
          la=2 lb=1:  32677 shell pairs
          la=2 lb=2:   7428 shell pairs
          la=3 lb=0:  17265 shell pairs
          la=3 lb=1:  11991 shell pairs
          la=3 lb=2:   5248 shell pairs
          la=3 lb=3:    975 shell pairs

Calculating one electron integrals          ... done (  0.8 sec)
Calculating RI/J V-Matrix + Cholesky decomp.... done (  2.2 sec)
Calculating RI/C V-Matrix + Cholesky decomp.... done (  3.3 sec)
Calculating Nuclear repulsion               ... done (  0.0 sec) ENN=  14903.448949156640 Eh

Diagonalization of the overlap matrix:
Smallest eigenvalue                        ... 1.701e-06
Time for diagonalization                   ...    1.192 sec
Threshold for overlap eigenvalues          ... 1.000e-07
Number of eigenvalues below threshold      ... 0
Time for construction of square roots      ...    0.829 sec
Total time needed                          ...    2.153 sec

-------------------
DFT GRID GENERATION
-------------------

General Integration Accuracy     IntAcc      ... 4.388
Radial Grid Type                 RadialGrid  ... OptM3 with GC (2021)
Angular Grid (max. ang.)         AngularGrid ... 4 (Lebedev-302)
Angular grid pruning method      GridPruning ... 4 (adaptive)
Weight generation scheme         WeightScheme... mBecke (2022)
Basis function cutoff            BFCut       ... 1.0000e-11
Integration weight cutoff        WCut        ... 1.0000e-14
Partially contracted basis set               ... off
Rotationally invariant grid construction     ... off
Angular grids for H and He will be reduced by one unit

Total number of grid points                  ...   624682
Total number of batches                      ...     9826
Average number of points per batch           ...       63
Average number of grid points per atom       ...     4769

--------------------
COSX GRID GENERATION
--------------------

GRIDX 1
-------
General Integration Accuracy     IntAcc      ... 3.816
Radial Grid Type                 RadialGrid  ... OptM3 with GC (2021)
Angular Grid (max. ang.)         AngularGrid ... 1 (Lebedev-50)
Angular grid pruning method      GridPruning ... 4 (adaptive)
Weight generation scheme         WeightScheme... mBecke (2022)
Basis function cutoff            BFCut       ... 1.0000e-11
Integration weight cutoff        WCut        ... 1.0000e-14
Partially contracted basis set               ... on
Rotationally invariant grid construction     ... off
Angular grids for H and He will be reduced by one unit

Total number of grid points                  ...    79727
Total number of batches                      ...      694
Average number of points per batch           ...      114
Average number of grid points per atom       ...      609
UseSFitting                                  ... on

GRIDX 2
-------
General Integration Accuracy     IntAcc      ... 4.020
Radial Grid Type                 RadialGrid  ... OptM3 with GC (2021)
Angular Grid (max. ang.)         AngularGrid ... 2 (Lebedev-110)
Angular grid pruning method      GridPruning ... 4 (adaptive)
Weight generation scheme         WeightScheme... mBecke (2022)
Basis function cutoff            BFCut       ... 1.0000e-11
Integration weight cutoff        WCut        ... 1.0000e-14
Partially contracted basis set               ... on
Rotationally invariant grid construction     ... off
Angular grids for H and He will be reduced by one unit

Total number of grid points                  ...   168733
Total number of batches                      ...     1393
Average number of points per batch           ...      121
Average number of grid points per atom       ...     1288
UseSFitting                                  ... on

GRIDX 3
-------
General Integration Accuracy     IntAcc      ... 4.338
Radial Grid Type                 RadialGrid  ... OptM3 with GC (2021)
Angular Grid (max. ang.)         AngularGrid ... 3 (Lebedev-194)
Angular grid pruning method      GridPruning ... 4 (adaptive)
Weight generation scheme         WeightScheme... mBecke (2022)
Basis function cutoff            BFCut       ... 1.0000e-11
Integration weight cutoff        WCut        ... 1.0000e-14
Partially contracted basis set               ... on
Rotationally invariant grid construction     ... off
Angular grids for H and He will be reduced by one unit

Total number of grid points                  ...   366198
Total number of batches                      ...     2928
Average number of points per batch           ...      125
Average number of grid points per atom       ...     2795
UseSFitting                                  ... on
Initializing property integral containers    ... done (  0.0 sec)

SHARK setup successfully completed in  30.1 seconds

Maximum memory used throughout the entire STARTUP-calculation: 673.7 MB


           ************************************************************
           *        Program running with 48 parallel MPI-processes    *
           *              working on a common directory               *
           ************************************************************
Loading Hartree-Fock densities                     ... done
Calculating cut-offs                               ... done
Initializing the effective Hamiltonian             ... done
Setting up the integral package (SHARK)            ... done
Starting the Coulomb interaction                   ... done (   2.6 sec)
Making the grid                                    ... done (   1.1 sec)
Mapping shells                                     ... done
Starting the XC term evaluation                    ... done (   0.9 sec)
  promolecular density results
     # of electrons  =    547.996435381
     EX              =   -461.577948904
     EC              =    -35.445612317
     EX+EC           =   -497.023561221
Transforming the Hamiltonian                       ... done (   0.7 sec)
Diagonalizing the Hamiltonian                      ... done (   1.0 sec)
Back transforming the eigenvectors                 ... done (   0.7 sec)
Now organizing SCF variables                       ... done
             **** ENERGY FILE WAS UPDATED (real-s-ml-dla-ts1-sp.en.tmp) ****
Finished Guess after  12.2 sec
Maximum memory used throughout the entire GUESS-calculation: 610.0 MB


           ************************************************************
           *        Program running with 48 parallel MPI-processes    *
           *              working on a common directory               *
           ************************************************************
----------------------------------------D-I-I-S--------------------------------------------
Iteration    Energy (Eh)           Delta-E    RMSDP     MaxDP     DIISErr   Damp  Time(sec)
-------------------------------------------------------------------------------------------
               ***  Starting incremental Fock matrix formation  ***
    1    -3569.0579288175376860     0.00e+00  8.24e-04  2.95e-01  3.25e-01  0.700  51.7
    2    -3570.1571057358614780    -1.10e+00  6.70e-04  2.54e-01  1.56e-01  0.700  35.9
                               ***Turning on AO-DIIS***
    3    -3570.6945901726157899    -5.37e-01  3.41e-04  8.83e-02  5.87e-02  0.700  29.8
    4    -3571.0232892723815894    -3.29e-01  7.76e-04  1.84e-01  4.31e-02  0.000  29.8
    5    -3571.7377767511370621    -7.14e-01  9.47e-05  1.63e-02  1.01e-02  0.000  31.6
                              *** Initializing SOSCF ***
---------------------------------------S-O-S-C-F--------------------------------------
Iteration    Energy (Eh)           Delta-E    RMSDP     MaxDP     MaxGrad    Time(sec)
--------------------------------------------------------------------------------------
    6    -3571.7398930441140692    -2.12e-03  4.10e-05  6.66e-03  2.82e-03    32.1
               *** Restarting incremental Fock matrix formation ***
    7    -3571.7396219909842330     2.71e-04  3.04e-04  4.07e-02  2.95e-04    51.2
    8    -3571.7396508332767553    -2.88e-05  1.43e-04  1.75e-02  4.40e-04    40.0
    9    -3571.7396735148049629    -2.27e-05  1.34e-04  1.74e-02  1.21e-04    39.0
   10    -3571.7396772584270366    -3.74e-06  3.08e-05  4.10e-03  6.20e-05    37.3
   11    -3571.7396780623512313    -8.04e-07  2.97e-05  3.62e-03  5.22e-05    34.0
   12    -3571.7396783673666505    -3.05e-07  6.98e-06  1.80e-03  1.12e-05    33.8
   13    -3571.7396783799540572    -1.26e-08  6.34e-06  1.61e-03  7.73e-06    27.9
   14    -3571.7396784869433759    -1.07e-07  4.59e-06  1.88e-03  3.55e-06    29.2
   15    -3571.7396785187065689    -3.18e-08  3.55e-06  1.73e-03  2.84e-06    25.1
   16    -3571.7396781992592878     3.19e-07  3.61e-06  1.17e-03  7.94e-07    25.1
                  *** Gradient check signals convergence ***

               *****************************************************
               *                     SUCCESS                       *
               *           SCF CONVERGED AFTER  16 CYCLES          *
               *****************************************************

Recomputing exchange energy using gridx3       ... done (   77.727 sec)
Old exchange energy                            :   -233.718127237 Eh
New exchange energy                            :   -233.718095085 Eh
Exchange energy change after final integration :      0.000032152 Eh
Total energy after final integration           :  -3571.739646048 Eh
             **** ENERGY FILE WAS UPDATED (real-s-ml-dla-ts1-sp.en.tmp) ****

----------------
TOTAL SCF ENERGY
----------------

Total Energy       :      -3571.73964604764660 Eh          -97191.97691 eV

Components:
Nuclear Repulsion  :      14903.44894915664008 Eh          405543.46334 eV
Electronic Energy  :     -18475.18862735589937 Eh         -502735.44113 eV
One Electron Energy:     -34593.85673233674606 Eh         -941346.69883 eV
Two Electron Energy:      16118.66810498084669 Eh          438611.25770 eV

Virial components:
Potential Energy   :      -7129.93095738951070 Eh         -194015.28490 eV
Kinetic Energy     :       3558.19131134186409 Eh           96823.30798 eV
Virial Ratio       :          2.00380764650360

DFT components:
N(Alpha)           :      273.999323324227 electrons
N(Beta)            :      273.999323324227 electrons
N(Total)           :      547.998646648455 electrons
E(X)               :     -234.782567393419 Eh       
E(C)               :      -14.712969361777 Eh       
E(XC)              :     -249.495536755196 Eh       

---------------
SCF CONVERGENCE
---------------

  Last Energy change         ...   -3.1945e-07  Tolerance :   1.0000e-08
  Last MAX-Density change    ...    1.1728e-03  Tolerance :   1.0000e-07
  Last RMS-Density change    ...    3.6130e-06  Tolerance :   5.0000e-09
  Last DIIS Error            ...    2.8217e-03  Tolerance :   5.0000e-07
  Last Orbital Gradient      ...    7.9430e-07  Tolerance :   1.0000e-05
  Last Orbital Rotation      ...    2.7552e-06  Tolerance :   1.0000e-05


----------------
ORBITAL ENERGIES
----------------

  NO   OCC          E(Eh)            E(eV) 
   0   2.0000     -56.921097     -1548.9018 
   1   2.0000     -19.718843      -536.5770 
   2   2.0000     -19.713069      -536.4199 
   3   2.0000     -19.701185      -536.0965 
   4   2.0000     -19.656609      -534.8835 
   5   2.0000     -19.644034      -534.5413 
   6   2.0000     -19.643687      -534.5319 
   7   2.0000     -19.643285      -534.5210 
   8   2.0000     -19.629150      -534.1363 
   9   2.0000     -19.627024      -534.0785 
  10   2.0000     -14.814976      -403.1360 
  11   2.0000     -14.813791      -403.1037 
  12   2.0000     -10.747454      -292.4531 
  13   2.0000     -10.710929      -291.4592 
  14   2.0000     -10.688540      -290.8500 
  15   2.0000     -10.657139      -289.9955 
  16   2.0000     -10.654235      -289.9165 
  17   2.0000     -10.648445      -289.7589 
  18   2.0000     -10.647860      -289.7430 
  19   2.0000     -10.637096      -289.4501 
  20   2.0000     -10.633039      -289.3397 
  21   2.0000     -10.621838      -289.0349 
  22   2.0000     -10.620131      -288.9885 
  23   2.0000     -10.617184      -288.9083 
  24   2.0000     -10.612033      -288.7681 
  25   2.0000     -10.590952      -288.1944 
  26   2.0000     -10.590807      -288.1905 
  27   2.0000     -10.590781      -288.1898 
  28   2.0000     -10.584879      -288.0292 
  29   2.0000     -10.584678      -288.0237 
  30   2.0000     -10.583998      -288.0052 
  31   2.0000     -10.583920      -288.0031 
  32   2.0000     -10.582313      -287.9594 
  33   2.0000     -10.581799      -287.9454 
  34   2.0000     -10.581708      -287.9429 
  35   2.0000     -10.580537      -287.9110 
  36   2.0000     -10.579906      -287.8939 
  37   2.0000     -10.578982      -287.8687 
  38   2.0000     -10.576761      -287.8083 
  39   2.0000     -10.576675      -287.8060 
  40   2.0000     -10.576326      -287.7965 
  41   2.0000     -10.575545      -287.7752 
  42   2.0000     -10.575221      -287.7664 
  43   2.0000     -10.574342      -287.7425 
  44   2.0000     -10.573959      -287.7320 
  45   2.0000     -10.573130      -287.7095 
  46   2.0000     -10.572824      -287.7012 
  47   2.0000     -10.571962      -287.6777 
  48   2.0000     -10.571928      -287.6768 
  49   2.0000     -10.571763      -287.6723 
  50   2.0000     -10.571736      -287.6716 
  51   2.0000     -10.571343      -287.6609 
  52   2.0000     -10.571324      -287.6604 
  53   2.0000     -10.570973      -287.6508 
  54   2.0000     -10.570960      -287.6504 
  55   2.0000     -10.570632      -287.6415 
  56   2.0000     -10.570348      -287.6338 
  57   2.0000     -10.569969      -287.6235 
  58   2.0000     -10.569703      -287.6162 
  59   2.0000     -10.569004      -287.5972 
  60   2.0000     -10.566381      -287.5258 
  61   2.0000     -10.565500      -287.5019 
  62   2.0000     -10.565013      -287.4886 
  63   2.0000     -10.564668      -287.4792 
  64   2.0000     -10.564082      -287.4633 
  65   2.0000     -10.563985      -287.4606 
  66   2.0000     -10.563393      -287.4445 
  67   2.0000     -10.563315      -287.4424 
  68   2.0000     -10.563014      -287.4342 
  69   2.0000     -10.562650      -287.4243 
  70   2.0000     -10.561632      -287.3966 
  71   2.0000     -10.561606      -287.3959 
  72   2.0000     -10.559665      -287.3431 
  73   2.0000     -10.558045      -287.2990 
  74   2.0000     -10.556690      -287.2621 
  75   2.0000     -10.554941      -287.2145 
  76   2.0000     -10.552672      -287.1528 
  77   2.0000     -10.540257      -286.8150 
  78   2.0000      -4.372985      -118.9950 
  79   2.0000      -2.841897       -77.3319 
  80   2.0000      -2.841018       -77.3080 
  81   2.0000      -2.840231       -77.2866 
  82   2.0000      -1.253913       -34.1207 
  83   2.0000      -1.223104       -33.2823 
  84   2.0000      -1.221737       -33.2452 
  85   2.0000      -1.152107       -31.3504 
  86   2.0000      -1.148414       -31.2499 
  87   2.0000      -1.132658       -30.8212 
  88   2.0000      -1.130398       -30.7597 
  89   2.0000      -1.126006       -30.6402 
  90   2.0000      -1.095336       -29.8056 
  91   2.0000      -1.081097       -29.4182 
  92   2.0000      -1.054641       -28.6982 
  93   2.0000      -0.992363       -27.0036 
  94   2.0000      -0.985902       -26.8277 
  95   2.0000      -0.979519       -26.6541 
  96   2.0000      -0.972945       -26.4752 
  97   2.0000      -0.965432       -26.2708 
  98   2.0000      -0.954743       -25.9799 
  99   2.0000      -0.931745       -25.3541 
 100   2.0000      -0.928664       -25.2702 
 101   2.0000      -0.923056       -25.1176 
 102   2.0000      -0.919157       -25.0115 
 103   2.0000      -0.900704       -24.5094 
 104   2.0000      -0.899800       -24.4848 
 105   2.0000      -0.892311       -24.2810 
 106   2.0000      -0.881050       -23.9746 
 107   2.0000      -0.880000       -23.9460 
 108   2.0000      -0.868240       -23.6260 
 109   2.0000      -0.858179       -23.3522 
 110   2.0000      -0.856135       -23.2966 
 111   2.0000      -0.854452       -23.2508 
 112   2.0000      -0.848979       -23.1019 
 113   2.0000      -0.848065       -23.0770 
 114   2.0000      -0.843907       -22.9639 
 115   2.0000      -0.832854       -22.6631 
 116   2.0000      -0.830365       -22.5954 
 117   2.0000      -0.823995       -22.4221 
 118   2.0000      -0.817888       -22.2559 
 119   2.0000      -0.815084       -22.1796 
 120   2.0000      -0.807726       -21.9794 
 121   2.0000      -0.796860       -21.6837 
 122   2.0000      -0.793641       -21.5961 
 123   2.0000      -0.788449       -21.4548 
 124   2.0000      -0.768711       -20.9177 
 125   2.0000      -0.763354       -20.7719 
 126   2.0000      -0.755336       -20.5537 
 127   2.0000      -0.735505       -20.0141 
 128   2.0000      -0.722643       -19.6641 
 129   2.0000      -0.719428       -19.5766 
 130   2.0000      -0.714648       -19.4466 
 131   2.0000      -0.707947       -19.2642 
 132   2.0000      -0.703893       -19.1539 
 133   2.0000      -0.701826       -19.0976 
 134   2.0000      -0.697810       -18.9884 
 135   2.0000      -0.696352       -18.9487 
 136   2.0000      -0.689688       -18.7674 
 137   2.0000      -0.687095       -18.6968 
 138   2.0000      -0.683612       -18.6020 
 139   2.0000      -0.681796       -18.5526 
 140   2.0000      -0.677314       -18.4307 
 141   2.0000      -0.673531       -18.3277 
 142   2.0000      -0.663080       -18.0433 
 143   2.0000      -0.654934       -17.8217 
 144   2.0000      -0.651634       -17.7319 
 145   2.0000      -0.648457       -17.6454 
 146   2.0000      -0.643956       -17.5229 
 147   2.0000      -0.641474       -17.4554 
 148   2.0000      -0.636575       -17.3221 
 149   2.0000      -0.615536       -16.7496 
 150   2.0000      -0.611504       -16.6399 
 151   2.0000      -0.607450       -16.5296 
 152   2.0000      -0.600505       -16.3406 
 153   2.0000      -0.595980       -16.2174 
 154   2.0000      -0.594138       -16.1673 
 155   2.0000      -0.586538       -15.9605 
 156   2.0000      -0.585503       -15.9323 
 157   2.0000      -0.582278       -15.8446 
 158   2.0000      -0.577250       -15.7078 
 159   2.0000      -0.573947       -15.6179 
 160   2.0000      -0.571917       -15.5626 
 161   2.0000      -0.569561       -15.4985 
 162   2.0000      -0.566099       -15.4043 
 163   2.0000      -0.564774       -15.3683 
 164   2.0000      -0.563812       -15.3421 
 165   2.0000      -0.556196       -15.1349 
 166   2.0000      -0.555138       -15.1061 
 167   2.0000      -0.552522       -15.0349 
 168   2.0000      -0.550580       -14.9820 
 169   2.0000      -0.545498       -14.8437 
 170   2.0000      -0.541284       -14.7291 
 171   2.0000      -0.534773       -14.5519 
 172   2.0000      -0.533187       -14.5088 
 173   2.0000      -0.529211       -14.4006 
 174   2.0000      -0.525557       -14.3011 
 175   2.0000      -0.519203       -14.1282 
 176   2.0000      -0.519097       -14.1253 
 177   2.0000      -0.516752       -14.0615 
 178   2.0000      -0.516113       -14.0442 
 179   2.0000      -0.513373       -13.9696 
 180   2.0000      -0.509577       -13.8663 
 181   2.0000      -0.507507       -13.8100 
 182   2.0000      -0.504821       -13.7369 
 183   2.0000      -0.503244       -13.6940 
 184   2.0000      -0.503048       -13.6886 
 185   2.0000      -0.499835       -13.6012 
 186   2.0000      -0.499441       -13.5905 
 187   2.0000      -0.493939       -13.4408 
 188   2.0000      -0.492077       -13.3901 
 189   2.0000      -0.490185       -13.3386 
 190   2.0000      -0.488824       -13.3016 
 191   2.0000      -0.486446       -13.2369 
 192   2.0000      -0.485133       -13.2011 
 193   2.0000      -0.483167       -13.1476 
 194   2.0000      -0.482370       -13.1260 
 195   2.0000      -0.480674       -13.0798 
 196   2.0000      -0.478361       -13.0169 
 197   2.0000      -0.476830       -12.9752 
 198   2.0000      -0.475877       -12.9493 
 199   2.0000      -0.474114       -12.9013 
 200   2.0000      -0.470250       -12.7961 
 201   2.0000      -0.467560       -12.7230 
 202   2.0000      -0.467155       -12.7119 
 203   2.0000      -0.464820       -12.6484 
 204   2.0000      -0.462690       -12.5904 
 205   2.0000      -0.461197       -12.5498 
 206   2.0000      -0.459562       -12.5053 
 207   2.0000      -0.458557       -12.4780 
 208   2.0000      -0.455433       -12.3929 
 209   2.0000      -0.451336       -12.2815 
 210   2.0000      -0.449801       -12.2397 
 211   2.0000      -0.447188       -12.1686 
 212   2.0000      -0.443876       -12.0785 
 213   2.0000      -0.442798       -12.0491 
 214   2.0000      -0.441421       -12.0117 
 215   2.0000      -0.438881       -11.9425 
 216   2.0000      -0.435565       -11.8523 
 217   2.0000      -0.431895       -11.7525 
 218   2.0000      -0.430536       -11.7155 
 219   2.0000      -0.425638       -11.5822 
 220   2.0000      -0.424333       -11.5467 
 221   2.0000      -0.422990       -11.5101 
 222   2.0000      -0.421625       -11.4730 
 223   2.0000      -0.420734       -11.4488 
 224   2.0000      -0.417516       -11.3612 
 225   2.0000      -0.413988       -11.2652 
 226   2.0000      -0.411980       -11.2106 
 227   2.0000      -0.410337       -11.1658 
 228   2.0000      -0.408714       -11.1217 
 229   2.0000      -0.407005       -11.0752 
 230   2.0000      -0.403935       -10.9916 
 231   2.0000      -0.402457       -10.9514 
 232   2.0000      -0.400221       -10.8906 
 233   2.0000      -0.399029       -10.8581 
 234   2.0000      -0.397602       -10.8193 
 235   2.0000      -0.396575       -10.7914 
 236   2.0000      -0.392721       -10.6865 
 237   2.0000      -0.390214       -10.6183 
 238   2.0000      -0.388687       -10.5767 
 239   2.0000      -0.387524       -10.5451 
 240   2.0000      -0.384935       -10.4746 
 241   2.0000      -0.380577       -10.3560 
 242   2.0000      -0.378757       -10.3065 
 243   2.0000      -0.378371       -10.2960 
 244   2.0000      -0.372480       -10.1357 
 245   2.0000      -0.370118       -10.0714 
 246   2.0000      -0.365504        -9.9459 
 247   2.0000      -0.361715        -9.8428 
 248   2.0000      -0.358934        -9.7671 
 249   2.0000      -0.354135        -9.6365 
 250   2.0000      -0.350362        -9.5338 
 251   2.0000      -0.348511        -9.4835 
 252   2.0000      -0.343320        -9.3422 
 253   2.0000      -0.336183        -9.1480 
 254   2.0000      -0.334575        -9.1042 
 255   2.0000      -0.327610        -8.9147 
 256   2.0000      -0.325239        -8.8502 
 257   2.0000      -0.323212        -8.7951 
 258   2.0000      -0.320160        -8.7120 
 259   2.0000      -0.318782        -8.6745 
 260   2.0000      -0.315824        -8.5940 
 261   2.0000      -0.312360        -8.4997 
 262   2.0000      -0.297659        -8.0997 
 263   2.0000      -0.291128        -7.9220 
 264   2.0000      -0.283251        -7.7077 
 265   2.0000      -0.281304        -7.6547 
 266   2.0000      -0.267597        -7.2817 
 267   2.0000      -0.265774        -7.2321 
 268   2.0000      -0.262800        -7.1511 
 269   2.0000      -0.257743        -7.0135 
 270   2.0000      -0.244564        -6.6549 
 271   2.0000      -0.236334        -6.4310 
 272   2.0000      -0.226317        -6.1584 
 273   2.0000      -0.221294        -6.0217 
 274   0.0000      -0.040478        -1.1015 
 275   0.0000      -0.032414        -0.8820 
 276   0.0000      -0.008857        -0.2410 
 277   0.0000       0.000970         0.0264 
 278   0.0000       0.013878         0.3776 
 279   0.0000       0.016940         0.4610 
 280   0.0000       0.019906         0.5417 
 281   0.0000       0.026514         0.7215 
 282   0.0000       0.033419         0.9094 
 283   0.0000       0.042786         1.1643 
 284   0.0000       0.044067         1.1991 
*Only the first 10 virtual orbitals were printed.
Total SCF time: 0 days 0 hours 10 min 40 sec 
Finished LeanSCF after 642.1 sec

Maximum memory used throughout the entire LEANSCF-calculation: 1077.6 MB


           ************************************************************
           *        Program running with 48 parallel MPI-processes    *
           *              working on a common directory               *
           ************************************************************

------------------------------------------------------------------------------
                                ORCA  MP2 
------------------------------------------------------------------------------

Freezing NCore=164 chemical core electrons

-------------
RI-MP2 ENERGY
-------------
Dimension of the orbital basis            ... 3171
Dimension of the AuxC basis               ... 7565
Memory devoted to MP2                     ... 5120 MB   
Data format for matrix containers         ... DOUBLE
Compression type for matrix containers    ... UNCOMPRESSED
Scaling for aa/bb pairs                   ...   0.000e+00
Scaling for ab pairs                      ...   1.000e+00
Overall scaling of the MP2 energy         ...   2.690e-01

-----------------------
SHARK RI TRANSFORMATION
-----------------------

Number of basis functions                ...   3171
Number of aux functions                  ...   7565
Number of operators                      ...      1
Generation of IJK                        ... NO
Generation of IAK                        ... YES
Generation of ABK                        ... NO
Orbital Range Operator  0:   82- 273 to  274-3170

Aux basis identifier                     ...   AUXC
Contraction scheme used                  ... SEGMENTED
Do orthogonalization                     ... YES
All operator combinations                ... NO
Transpose (ia|K)                         ... NO
Integral generator used                  ... LIBINT
Starting integral generation + trafo... 
Half trafo (segmented) done. Total time = 62.8 sec. integrals= 15.7 sec trafo= 46.1 sec
Integral generation and half transformation done ( 62.8 sec)

Reading or making V^(-1/2)          ... done (  0.9 sec)
Sorting IAK integrals               ... done ( 53.9 sec)

SHARK RI integral transformation done. Total time =117.8 sec.

Opening buffers                              ... done

Starting loop over batches of integrals:

Operator 0  - window                       ... ( 82-273)x(274-3170)
Operator 0  - Memory available             ...  5120 MB
Operator 0  - Memory needed per MO         ... 167.2 MB
Operator 0  - Number of orbitals per batch ... 4
Operator 0  - Number of batches            ... 1

OPERATOR  0   PASS   0:  MOs    82 ...   85 +   86 ...   89 +   90 ...   93 +   94 ...   97
                            +   98 ...  101 +  102 ...  105 +  106 ...  109 +  110 ...  113
                            +  114 ...  117 +  118 ...  121 +  122 ...  125 +  126 ...  129
                            +  130 ...  133 +  134 ...  137 +  138 ...  141 +  142 ...  145
                            +  146 ...  149 +  150 ...  153 +  154 ...  157 +  158 ...  161
                            +  162 ...  165 +  166 ...  169 +  170 ...  173 +  174 ...  177
                            +  178 ...  181 +  182 ...  185 +  186 ...  189 +  190 ...  193
                            +  194 ...  197 +  198 ...  201 +  202 ...  205 +  206 ...  209
                            +  210 ...  213 +  214 ...  217 +  218 ...  221 +  222 ...  225
                            +  226 ...  229 +  230 ...  233 +  234 ...  237 +  238 ...  241
                            +  242 ...  245 +  246 ...  249 +  250 ...  253 +  254 ...  257
                            +  258 ...  261 +  262 ...  265 +  266 ...  269 +  270 ...  273
  Reading integrals       ... ok
  Internal MO  84
Time spent in pair loops =  2444.757 sec
Deleting buffers (Ka|jb) ...done

-----------------------------------------------
 RI-MP2 CORRELATION ENERGY:     -3.230173693 Eh
-----------------------------------------------


-------
TIMINGS
-------

Total time                : 2575.587 sec
Integral trafo            :  117.970 sec (  4.6%)
I/O of integrals          :    0.920 sec (  0.0%)
K(i,j) operators          :   33.134 sec (  1.3%)
T(i,j) pair energies      :    1.565 sec (  0.1%)
V**(-1/2)                 :   12.859 sec (  0.5%)


---------------------------------------
MP2 TOTAL ENERGY:    -3574.969819740 Eh
---------------------------------------

Maximum memory used throughout the entire MP2-calculation: 1739.5 MB


-------------------------------------------------------------------------------
                          DFT DISPERSION CORRECTION                            
                                                                               
                                DFTD4 V3.4.0                                   
-------------------------------------------------------------------------------
-------------------------   ----------------
Dispersion correction           -0.169130318
-------------------------   ----------------


-------------------------   --------------------
FINAL SINGLE POINT ENERGY     -3575.138950058763
-------------------------   --------------------



           ************************************************************
           *        Program running with 48 parallel MPI-processes    *
           *              working on a common directory               *
           ************************************************************

------------------------------------------------------------------------------
                              ORCA PROPERTY CALCULATIONS
------------------------------------------------------------------------------

GBWName                                 ... real-s-ml-dla-ts1-sp.gbw
Number of atoms                         ...    131
Number of basis functions               ...   3171
Max core memory                         ...   5120 MB

Electric properties:
Dipole moment                           ... YES
Quadrupole moment                       ...  NO
Static polarizability (Dipole/Dipole)   ...  NO
Static polarizability (Dipole/Quad.)    ...  NO
Static polarizability (Quad./Quad.)     ...  NO
Static polarizability (Velocity)        ...  NO

Atomic electric properties:
Dipole moment                           ...  NO
Quadrupole moment                       ...  NO
Static polarizability                   ...  NO

Choice of electric origin               ... Center of mass
Position of electric origin             ...    -0.001057    -0.008861    -0.004685

General magnetic properties:
Magnetizability                         ...  NO

EPR properties:
g-Tensor (aka g-matrix)                 ...  NO
Zero-Field splitting spin-orbit         ...  NO
Zero-field splitting spin-spin          ...  NO
Hyperfine couplings                     ...  NO (   0 nuclei)
Quadrupole couplings                    ...  NO (   0 nuclei)
Contact density                         ...  NO (   0 nuclei)

NMR properties:
Chemical shifts                         ...  NO (   0 nuclei)
Spin-rotation constants                 ...  NO (   0 nuclei)
Spin-spin couplings                     ...  NO (   0 nuclei,    0 pairs)

Choice of magnetic origin               ... GIAO
Position of magnetic origin             ...     0.000000     0.000000     0.000000

Properties with geometric perturbations:
SCF Hessian                             ...  NO
IR spectrum                             ...  NO
VCD spectrum                            ...  NO
X-ray spectroscopy properties:
SCF XES/XAS/RIXS spectra                ...  NO


-------------
DIPOLE MOMENT
-------------

Method             : SCF
Type of density    : Electron Density
Multiplicity       :   1
Irrep              :   0
Energy             : -3571.7396460476466018 Eh
Relativity type    : 
Basis              : AO
                                X                 Y                 Z
Electronic contribution:     -0.969320243      -5.411560925      -4.942256250
Nuclear contribution   :      0.579197181       4.855619198       2.567447689
                        -----------------------------------------
Total Dipole Moment    :     -0.390123061      -0.555941728      -2.374808561
                        -----------------------------------------
Magnitude (a.u.)       :      2.470016783
Magnitude (Debye)      :      6.278283719



--------------------
Rotational spectrum 
--------------------
 
Rotational constants in cm-1:             0.001368             0.000936             0.000871 
Rotational constants in MHz :            41.025476            28.063934            26.107969 

Dipole components along the rotational axes: 
x,y,z [a.u.] :     0.396962    -0.541411    -2.377031 
x,y,z [Debye]:     1.008997    -1.376157    -6.041934 

 

Dipole moment calculation done in   0.6 sec 

Maximum memory used throughout the entire PROP-calculation: 693.9 MB

--------------------------------
SUGGESTED CITATIONS FOR THIS RUN
--------------------------------

Below you find a list of papers that are relevant to this ORCA run
We neither can nor want to force you to cite these papers, but we appreciate if you do
You receive ORCA, which is the product of decades of hard work by many enthusiastic individuals, for free
The only thing we kindly ask in return is that you cite our papers,
We deeply appreciate it, if you show your appreciation for ORCA by not just citing the generic ORCA reference.

Please note that relegating all ORCA citations to the supporting information does *not* help us.
SI sections are not indexed - citations you put there will not count into any citation statistics
But we need these citations in order to attract the funding resources that allow us to do what we are doing

Therefore, if you are a happy ORCA user, please consider citing a few of the papers listed below in the main body of your paper

In addition to the list printed below, the program has created the file real-s-ml-dla-ts1-sp.bibtex that contains the list in bibtex format
You can import this file easily into all common literature databanks and citation aid programs


List of essential papers. We consider these as the minimum necessary citations

  1. Neese,F.
     Software update: the ORCA program system, version 5.0
     WIRES Comput. Molec. Sci., 2022 12(1)e1606
     doi.org/10.1002/wcms.1606

List of papers to cite with high priority. The work reported in these papers was absolutely
necessary for this run to complete.
Our perspective: the developers of density functionals and basis sets usually get cited in chemistry papers
Good! But without the algorithms to do something with them, the functionals or basis sets would not do anything.
Hence, in our opinion, the algorithm design and method developments papers are equally worthy of getting cited

  1. Neese,F.
     An improvement of the resolution of the identity approximation for the formation of the Coulomb matrix
     J. Comp. Chem., 2003 24(14)1740-1747
     doi.org/10.1002/jcc.10318
  2. Neese,F.; Wennmohs,F.; Hansen,A.; Becker,U.
     Efficient, approximate and parallel Hartree-Fock and hybrid DFT calculations. A 'chain-of-spheres' algorithm for the Hartree-Fock exchange
     Chem. Phys., 2009 356(1-3)98-109
     doi.org/10.1016/j.chemphys.2008.10.036
  3. Kossmann,S.; Neese,F.
     Efficient Structure Optimization with Second-Order Many-Body Perturbation Theory: The RIJCOSX-MP2 Method
     J. Theo. Comp. Chem., 2010 6 2325-2338
     doi.org/10.1021/ct100199k
  4. Helmich-Paris,B.; de Souza,B.; Neese,F.; Izsák,R.
     An improved chain of spheres for exchange algorithm
     J. Chem. Phys., 2021 155 104109
     doi.org/doi: 10.1063/5.0058766.
  5. Neese,F.
     The SHARK Integral Generation and Digestion System
     J. Comp. Chem., 2022  1-16
     doi.org/10.1002/jcc.26942
  6. Caldeweyher,E.; Bannwarth,C.; Grimme,S.
     Extension of the D3 dispersion coefficient model
     J. Chem. Phys., 2017 147 034112
     doi.org/10.1063/1.4993215
  7. Caldeweyher,E.; Ehlert,S.; Hansen,A.; Neugebauer,H.; Spicher,S.; Bannwarth,C.; Grimme,S.
     A generally applicable atomic-charge dependent London dispersion correction
     J. Chem. Phys., 2019 150 154122
     doi.org/10.1063/1.5090222
  8. Caldeweyher,E.; Mewes,J.; Ehlert,S.; Grimme,S.
     Extension and evaluation of the D4 London-dispersion model for periodic systems
     Phys. Chem. Chem. Phys., 2020 22(16)8499-8512
     doi.org/10.1039/D0CP00502A
  9. Wittmann,L.; Gordiy,I.; Friede,M.; Helmich-Paris,B.; Grimme,S.; Hansen,A.; Bursch,M.
     Extension of the D3 and D4 London Dispersion Corrections to the full Actinides Series
     Phys. Chem. Chem. Phys., 2024 26(32)21379-21394
     doi.org/https://doi.org/10.1039/D4CP01514B 

List of suggested additional citations. These are papers that are important in the 'surrounding' of 
of this run, or papers that preceded the highly important papers. If you like your results we are grateful for a citation.

  1. Izsak,R.; Neese,F.
     An overlap fitted chain of spheres exchange method
     J. Chem. Phys., 2011 135 144105
     doi.org/10.1063/1.3646921
  2. Izsak,R.; Hansen,A.; Neese,F.
     The resolution of identity and chain of spheres approximations for the LPNO-CCSD singles Fock term
     Molec. Phys., 2012 110 2413-2417
     doi.org/10.1080/00268976.2012.687466
  3. Neese,F.
     The ORCA program system
     WIRES Comput. Molec. Sci., 2012 2(1)73-78
     doi.org/10.1002/wcms.81
  4. Izsak,R.; Neese,F.; Klopper,W.
     Robust fitting techniques in the chain of spheres approximation to the Fock exchange: The role of the complementary space
     J. Chem. Phys., 2013 139 
     doi.org/10.1063/1.4819264
  5. Neese,F.
     Software update: the ORCA program system, version 4.0
     WIRES Comput. Molec. Sci., 2018 8(1)1-6
     doi.org/10.1002/wcms.1327
  6. Neese,F.; Wennmohs,F.; Becker,U.; Riplinger,C.
     The ORCA quantum chemistry program package
     J. Chem. Phys., 2020 152 Art. No. L224108
     doi.org/10.1063/5.0004608

List of optional additional citations

  1. Neese,F.
     Approximate second-order SCF convergence for spin unrestricted wavefunctions
     Chem. Phys. Lett., 2000 325(1-3)93-98
     doi.org/10.1016/s0009-2614(00)00662-x

Timings for individual modules:

Sum of individual times          ...     3271.038 sec (=  54.517 min)
Startup calculation              ...       31.641 sec (=   0.527 min)   1.0 %
SCF iterations                   ...      655.795 sec (=  10.930 min)  20.0 %
Property calculations            ...        3.128 sec (=   0.052 min)   0.1 %
MP2 module                       ...     2580.474 sec (=  43.008 min)  78.9 %
                             ****ORCA TERMINATED NORMALLY****
TOTAL RUN TIME: 0 days 0 hours 54 minutes 31 seconds 706 msec
